! TOUCHSTONE file generated by CST MICROWAVE STUDIO
! Date and time: Wed Aug 05 18:28:33 2015
! Project name: top1.cst
# GHZ S MA R 50
0.1                    0.0568121         39.5723         0.958026        -2.55959         0.957603        -2.55778        0.0565667         40.0226  
0.1149                 0.0608195         42.9638         0.957622        -2.94006         0.957189        -2.93987        0.0605627         43.4746  
0.129800008            0.0650508         45.8732         0.957188        -3.32008         0.956743        -3.32141        0.0647895         46.4362  
0.1447                 0.0694627         48.3695         0.956724        -3.69962         0.956268        -3.70239        0.0692024         48.9771  
0.1596                 0.0740208         50.5138         0.956229        -4.07867         0.955763        -4.08278         0.073766         51.1596  
0.1745                 0.0786973         52.3591         0.955704         -4.4572         0.955227        -4.46258        0.0784517         53.0373  
0.1894                 0.0834701         53.9499         0.955149        -4.83521         0.954663        -4.84178        0.0832367         54.6558  
0.2043                 0.0883213         55.3236         0.954564        -5.21267         0.954068        -5.22035        0.0881027         56.0533  
0.2192                 0.0932365         56.5117          0.95395        -5.58958         0.953445        -5.59828        0.0930346         57.2619  
0.2341                 0.0982039         57.5402         0.953306        -5.96591         0.952792        -5.97557        0.0980205         58.3083  
0.249                   0.103214         58.4311         0.952634        -6.34165         0.952111        -6.35219          0.10305         59.2147  
0.263900016             0.108258         59.2026         0.951932        -6.71679         0.951402        -6.72814         0.108116         59.9998  
0.2788                   0.11333         59.8701         0.951202         -7.0913         0.950664         -7.1034          0.11321         60.6795  
0.2937                  0.118424         60.4468         0.950443        -7.46518         0.949898        -7.47796         0.118327         61.2669  
0.3086                  0.123535         60.9436         0.949656        -7.83841         0.949104         -7.8518         0.123462         61.7734  
0.3235                  0.128659           61.37         0.948841        -8.21098         0.948283        -8.22492          0.12861         62.2085  
0.3384                  0.133793          61.734         0.947999        -8.58287         0.947435         -8.5973         0.133769         62.5804  
0.3533                  0.138933         62.0425         0.947129        -8.95406          0.94656        -8.96893         0.138934         62.8962  
0.3682                  0.144077         62.3016         0.946232        -9.32455         0.945658         -9.3398         0.144104          63.162  
0.3831                  0.149222         62.5164         0.945308        -9.69432          0.94473        -9.70989         0.149275          63.383  
0.398                   0.154367         62.6914         0.944357        -10.0634         0.943776        -10.0792         0.154445         63.5638  
0.4129                  0.159509         62.8306          0.94338        -10.4317         0.942795        -10.4477         0.159614         63.7085  
0.4278                  0.164647         62.9375         0.942377        -10.7992          0.94179        -10.8154         0.164778         63.8206  
0.4427                  0.169779         63.0151         0.941349        -11.1659         0.940759        -11.1823         0.169936         63.9031  
0.4576                  0.174904         63.0661         0.940295        -11.5319         0.939703        -11.5484         0.175087         63.9589  
0.4725                  0.180021         63.0929         0.939216        -11.8971         0.938622        -11.9136          0.18023         63.9902  
0.4874                  0.185128         63.0976         0.938111        -12.2615         0.937517         -12.278         0.185364         63.9993  
0.502300032             0.190224         63.0821         0.936983        -12.6251         0.936388        -12.6415         0.190486         63.9882  
0.5172                   0.19531         63.0481          0.93583        -12.9878         0.935235        -13.0041         0.195598         63.9585  
0.532100032             0.200383         62.9972         0.934653        -13.3497         0.934059        -13.3659         0.200696         63.9117  
0.547                   0.205442         62.9307         0.933452        -13.7107          0.93286        -13.7268         0.205782         63.8493  
0.561900032             0.210488         62.8499         0.932228        -14.0709         0.931637        -14.0868         0.210853         63.7725  
0.5768                  0.215519         62.7558         0.930981        -14.4302         0.930392        -14.4459         0.215909         63.6825  
0.591700032             0.220536         62.6495         0.929711        -14.7886         0.929125         -14.804          0.22095         63.5803  
0.6066                  0.225536         62.5319         0.928419        -15.1461         0.927836        -15.1613         0.225975         63.4667  
0.621500032             0.230519         62.4039         0.927105        -15.5028         0.926525        -15.5176         0.230983         63.3427  
0.6364                  0.235486         62.2662         0.925769        -15.8585         0.925193         -15.873         0.235974         63.2091  
0.651300032             0.240435         62.1195         0.924412        -16.2133          0.92384        -16.2274         0.240946         63.0665  
0.6662                  0.245367         61.9644         0.923033        -16.5671         0.922466        -16.5809         0.245901         62.9155  
0.681100032              0.25028         61.8016         0.921633        -16.9201         0.921072        -16.9335         0.250836         62.7569  
0.696                   0.255174         61.6316         0.920214        -17.2721         0.919658         -17.285         0.255753         62.5911  
0.710900032             0.260048         61.4549         0.918773        -17.6231         0.918224        -17.6356         0.260649         62.4186  
0.7258                  0.264903         61.2719         0.917313        -17.9731         0.916771        -17.9852         0.265526           62.24  
0.740700032             0.269738         61.0831         0.915834        -18.3222         0.915298        -18.3339         0.270382         62.0555  
0.7556                  0.274553         60.8888         0.914335        -18.6704         0.913807        -18.6815         0.275217         61.8657  
0.770500032             0.279347         60.6895         0.912818        -19.0175         0.912297        -19.0281         0.280031         61.6709  
0.7854                   0.28412         60.4854         0.911282        -19.3636         0.910769        -19.3738         0.284824         61.4714  
0.800300032             0.288872          60.277         0.909727        -19.7088         0.909223        -19.7184         0.289595         61.2676  
0.8152                  0.293602         60.0644         0.908155        -20.0529          0.90766         -20.062         0.294344         61.0597  
0.830099968              0.29831         59.8479         0.906565         -20.396         0.906079        -20.4046          0.29907          60.848  
0.845                   0.302996         59.6278         0.904958        -20.7382         0.904482        -20.7462         0.303774         60.6329  
0.859899968              0.30766         59.4044         0.903334        -21.0792         0.902868        -21.0867         0.308454         60.4144  
0.8748                  0.312301         59.1779         0.901694        -21.4193         0.901237        -21.4262         0.313112         60.1929  
0.889699968             0.316919         58.9484         0.900037        -21.7583         0.899591        -21.7647         0.317746         59.9686  
0.9046                  0.321514         58.7161         0.898364        -22.0963         0.897929        -22.1021         0.322357         59.7416  
0.919499968             0.326086         58.4813         0.896676        -22.4333         0.896251        -22.4385         0.326944         59.5121  
0.9344                  0.330635         58.2442         0.894972        -22.7692         0.894559        -22.7738         0.331508         59.2803  
0.949299968              0.33516         58.0048         0.893253         -23.104         0.892852        -23.1081         0.336047         59.0464  
0.9642                  0.339661         57.7633          0.89152        -23.4378          0.89113        -23.4413         0.340562         58.8106  
0.979099968             0.344139         57.5199         0.889772        -23.7706         0.889394        -23.7734         0.345052         58.5729  
0.994                   0.348592         57.2747          0.88801        -24.1022         0.887645        -24.1045         0.349518         58.3334  
1.00890003              0.353022         57.0279         0.886234        -24.4328         0.885882        -24.4346         0.353959         58.0925  
1.0238                  0.357427         56.7795         0.884445        -24.7624         0.884105        -24.7635         0.358375           57.85  
1.03869997              0.361807         56.5296         0.882643        -25.0908         0.882316        -25.0914         0.362767         57.6063  
1.05359994              0.366163         56.2785         0.880828        -25.4182         0.880514        -25.4182         0.367133         57.3612  
1.06850003              0.370495         56.0261         0.879001        -25.7445           0.8787         -25.744         0.371474         57.1151  
1.08340006              0.374802         55.7726         0.877161        -26.0697         0.876873        -26.0686          0.37579         56.8679  
1.09830003              0.379084          55.518         0.875309        -26.3939         0.875035        -26.3922         0.380081         56.6198  
1.1132                  0.383341         55.2625         0.873446        -26.7169         0.873186        -26.7147         0.384346         56.3708  
1.1281001               0.387573         55.0061         0.871571        -27.0389         0.871325        -27.0362         0.388585         56.1211  
1.14300006               0.39178         54.7489         0.869686        -27.3597         0.869453        -27.3565           0.3928         55.8706  
1.15790003              0.395962         54.4909         0.867789        -27.6795         0.867571        -27.6758         0.396988         55.6195  
1.1728                  0.400119         54.2323         0.865882        -27.9982         0.865678        -27.9939         0.401151         55.3679  
1.1877001               0.404251         53.9732         0.863965        -28.3158         0.863775         -28.311         0.405289         55.1157  
1.20260006              0.408357         53.7135         0.862038        -28.6323         0.861862         -28.627           0.4094         54.8632  
1.21750003              0.412439         53.4533         0.860102        -28.9477          0.85994        -28.9419         0.413486         54.6102  
1.2324                  0.416495         53.1927         0.858156         -29.262         0.858009        -29.2558         0.417546         54.3569  
1.24729997              0.420526         52.9318         0.856201        -29.5752         0.856068        -29.5685         0.421581         54.1034  
1.26219994              0.424531         52.6705         0.854237        -29.8873         0.854119        -29.8802          0.42559         53.8497  
1.2770999               0.428511          52.409         0.852265        -30.1984         0.852161        -30.1907         0.429572         53.5958  
1.292                   0.432466         52.1473         0.850285        -30.5083         0.850195        -30.5002          0.43353         53.3418  
1.30689997              0.436395         51.8854         0.848296        -30.8171         0.848221        -30.8086         0.437461         53.0877  
1.32179994                0.4403         51.6234           0.8463        -31.1248         0.846239        -31.1159         0.441366         52.8336  
1.3366999               0.444179         51.3613         0.844296        -31.4315          0.84425        -31.4221         0.445246         52.5795  
1.3516                  0.448032         51.0991         0.842285         -31.737         0.842254        -31.7273         0.449101         52.3254  
1.36649997              0.451861          50.837         0.840267        -32.0414          0.84025        -32.0313         0.452929         52.0714  
1.38139994              0.455664         50.5748         0.838243        -32.3448          0.83824        -32.3343         0.456732         51.8175  
1.3962999               0.459442         50.3127         0.836212         -32.647         0.836223        -32.6362         0.460509         51.5638  
1.4112                  0.463194         50.0507         0.834175        -32.9482           0.8342         -32.937         0.464261         51.3103  
1.42609997              0.466922         49.7888         0.832131        -33.2482         0.832171        -33.2367         0.467987         51.0569  
1.44099994              0.470624         49.5271         0.830082        -33.5472         0.830136        -33.5354         0.471688         50.8038  
1.4558999               0.474302         49.2656         0.828028        -33.8451         0.828096        -33.8329         0.475363          50.551  
1.4708                  0.477954         49.0042         0.825968        -34.1419          0.82605        -34.1294         0.479013         50.2985  
1.48569997              0.481582         48.7431         0.823903        -34.4376         0.823999        -34.4249         0.482638         50.0462  
1.50059994              0.485185         48.4822         0.821833        -34.7322         0.821943        -34.7192         0.486238         49.7943  
1.5154999               0.488762         48.2215         0.819759        -35.0258         0.819882        -35.0125         0.489812         49.5428  
1.5304                  0.492315         47.9612          0.81768        -35.3183         0.817817        -35.3048         0.493361         49.2917  
1.54529997              0.495844         47.7012         0.815597        -35.6097         0.815747        -35.5959         0.496886         49.0409  
1.56019994              0.499348         47.4415          0.81351           -35.9         0.813673         -35.886         0.500385         48.7906  
1.5750999               0.502827         47.1822          0.81142        -36.1892         0.811596         -36.175          0.50386         48.5407  
1.59                    0.506281         46.9233         0.809325        -36.4774         0.809514         -36.463          0.50731         48.2912  
1.60489997              0.509712         46.6647         0.807228        -36.7645          0.80743          -36.75         0.510735         48.0423  
1.61979994              0.513118         46.4065         0.805127        -37.0506         0.805342        -37.0358         0.514135         47.7938  
1.6346999                 0.5165         46.1488         0.803023        -37.3355          0.80325        -37.3207         0.517512         47.5458  
1.6496                  0.519857         45.8915         0.800917        -37.6195         0.801156        -37.6044         0.520863         47.2983  
1.66449997              0.523191         45.6346         0.798808        -37.9023         0.799059        -37.8872         0.524191         47.0514  
1.67939994                0.5265         45.3782         0.796696        -38.1842          0.79696        -38.1689         0.527494          46.805  
1.69430003              0.529786         45.1223         0.794582        -38.4649         0.794858        -38.4495         0.530774         46.5592  
1.7092                  0.533048         44.8668         0.792467        -38.7446         0.792754        -38.7291         0.534029         46.3139  
1.72409997              0.536286         44.6119         0.790349        -39.0233         0.790648        -39.0077          0.53726         46.0692  
1.73899994              0.539501         44.3574          0.78823         -39.301          0.78854        -39.2853         0.540468         45.8251  
1.75390003              0.542693         44.1035         0.786109        -39.5776          0.78643        -39.5618         0.543652         45.5815  
1.7688                  0.545861         43.8501         0.783987        -39.8531         0.784319        -39.8374         0.546813         45.3386  
1.78369997              0.549005         43.5972         0.781863        -40.1277         0.782207        -40.1119          0.54995         45.0963  
1.79859994              0.552127         43.3449         0.779739        -40.4012         0.780093        -40.3853         0.553064         44.8546  
1.81350003              0.555225         43.0932         0.777614        -40.6737         0.777978        -40.6578         0.556154         44.6136  
1.8284                  0.558301          42.842         0.775488        -40.9452         0.775862        -40.9293         0.559222         44.3732  
1.84329997              0.561354         42.5914         0.773361        -41.2156         0.773746        -41.1998         0.562267         44.1334  
1.85819994              0.564384         42.3414         0.771235        -41.4851         0.771629        -41.4692         0.565289         43.8943  
1.87310003              0.567391         42.0919         0.769107        -41.7535         0.769511        -41.7377         0.568288         43.6558  
1.888                   0.570376          41.843          0.76698         -42.021         0.767393        -42.0052         0.571265          43.418  
1.90289997              0.573339         41.5948         0.764853        -42.2874         0.765275        -42.2717         0.574219         43.1809  
1.91779994               0.57628         41.3471         0.762726        -42.5529         0.763157        -42.5372         0.577151         42.9444  
1.93270003              0.579198         41.1001         0.760599        -42.8174         0.761039        -42.8017         0.580061         42.7086  
1.9476                  0.582095         40.8536         0.758473        -43.0808         0.758922        -43.0653         0.582949         42.4735  
1.96249997              0.584969         40.6078         0.756348        -43.3433         0.756804        -43.3278         0.585815         42.2391  
1.97739994              0.587822         40.3626         0.754223        -43.6049         0.754688        -43.5894         0.588659         42.0053  
1.99230003              0.590653          40.118         0.752099        -43.8654         0.752571        -43.8501         0.591482         41.7723  
2.0072                  0.593463         39.8741         0.749975         -44.125         0.750456        -44.1098         0.594283         41.5399  
2.02209997              0.596252         39.6308         0.747853        -44.3836         0.748341        -44.3685         0.597062         41.3083  
2.03699994              0.599019         39.3881         0.745733        -44.6413         0.746228        -44.6263         0.599821         41.0773  
2.0518999               0.601765         39.1461         0.743613         -44.898         0.744115        -44.8831         0.602558         40.8471  
2.06680013               0.60449         38.9047         0.741495        -45.1537         0.742004         -45.139         0.605274         40.6175  
2.0817001               0.607194          38.664         0.739379        -45.4085         0.739894         -45.394          0.60797         40.3887  
2.09660006              0.609878         38.4239         0.737264        -45.6624         0.737786         -45.648         0.610645         40.1605  
2.11150003              0.612541         38.1844         0.735151        -45.9153         0.735679        -45.9011         0.613299         39.9331  
2.1264                  0.615184         37.9456         0.733039        -46.1673         0.733574        -46.1532         0.615933         39.7064  
2.14129997              0.617806         37.7075          0.73093        -46.4184          0.73147        -46.4045         0.618546         39.4804  
2.15619994              0.620408           37.47         0.728823        -46.6685         0.729368        -46.6548          0.62114         39.2551  
2.1710999                0.62299         37.2332         0.726718        -46.9178         0.727269        -46.9042         0.623713         39.0305  
2.18600013              0.625552          36.997         0.724615        -47.1661         0.725171        -47.1527         0.626267         38.8066  
2.2009001               0.628095         36.7615         0.722515        -47.4135         0.723075        -47.4003           0.6288         38.5835  
2.21580006              0.630617         36.5266         0.720417          -47.66         0.720982         -47.647         0.631315          38.361  
2.23070003               0.63312         36.2924         0.718322        -47.9056         0.718891        -47.8928         0.633809         38.1393  
2.2456                  0.635604         36.0589         0.716229        -48.1503         0.716803        -48.1377         0.636285         37.9183  
2.26049997              0.638069          35.826         0.714139        -48.3941         0.714717        -48.3818         0.638741         37.6979  
2.27539994              0.640514         35.5938         0.712051         -48.637         0.712633        -48.6249         0.641178         37.4783  
2.2902999                0.64294         35.3623         0.709967        -48.8791         0.710553        -48.8672         0.643596         37.2595  
2.30520013              0.645348         35.1314         0.707886        -49.1203         0.708475        -49.1086         0.645996         37.0413  
2.3201001               0.647737         34.9012         0.705807        -49.3606         0.706399        -49.3492         0.648377         36.8238  
2.33500006              0.650107         34.6716         0.703732           -49.6         0.704327        -49.5889         0.650739         36.6071  
2.34990003              0.652458         34.4427          0.70166        -49.8386         0.702258        -49.8277         0.653083          36.391  
2.3648                  0.654792         34.2144         0.699591        -50.0763         0.700192        -50.0657         0.655409         36.1756  
2.37969997              0.657107         33.9868         0.697525        -50.3132         0.698128        -50.3028         0.657716          35.961  
2.39459994              0.659404         33.7599         0.695463        -50.5492         0.696069        -50.5391         0.660006         35.7471  
2.4094999               0.661683         33.5336         0.693404        -50.7844         0.694012        -50.7745         0.662278         35.5338  
2.42440013              0.663944          33.308         0.691349        -51.0188         0.691958        -51.0091         0.664532         35.3213  
2.4393001               0.666188          33.083         0.689297        -51.2523         0.689909        -51.2429         0.666769         35.1094  
2.45420006              0.668414         32.8587         0.687249         -51.485         0.687862        -51.4758         0.668988         34.8983  
2.46910003              0.670623          32.635         0.685205        -51.7169         0.685819         -51.708          0.67119         34.6879  
2.484                   0.672814          32.412         0.683165        -51.9479          0.68378        -51.9393         0.673374         34.4781  
2.49889997              0.674988         32.1896         0.681128        -52.1782         0.681744        -52.1698         0.675542          34.269  
2.51379994              0.677145         31.9679         0.679095        -52.4076         0.679712        -52.3995         0.677693         34.0607  
2.52870016              0.679286         31.7469         0.677066        -52.6363         0.677684        -52.6284         0.679827          33.853  
2.54360013              0.681409         31.5264         0.675041        -52.8641         0.675659        -52.8565         0.681944          33.646  
2.5585001               0.683516         31.3066          0.67302        -53.0912         0.673638        -53.0839         0.684045         33.4396  
2.57340006              0.685606         31.0875         0.671003        -53.3174         0.671622        -53.3104          0.68613          33.234  
2.58830003               0.68768          30.869          0.66899        -53.5429         0.669609        -53.5361         0.688198          33.029  
2.6032                  0.689738         30.6511         0.666982        -53.7676           0.6676        -53.7611         0.690251         32.8247  
2.61809997              0.691779         30.4339         0.664977        -53.9915         0.665595        -53.9853         0.692287         32.6211  
2.63299994              0.693805         30.2173         0.662977        -54.2147         0.663594        -54.2087         0.694307         32.4181  
2.64790016              0.695815         30.0013         0.660981        -54.4371         0.661598        -54.4314         0.696312         32.2158  
2.66280013              0.697808          29.786         0.658989        -54.6587         0.659605        -54.6533         0.698301         32.0142  
2.6777001               0.699786         29.5713         0.657002        -54.8796         0.657617        -54.8744         0.700275         31.8133  
2.69260006              0.701749         29.3572         0.655019        -55.0997         0.655633        -55.0949         0.702233          31.613  
2.70750003              0.703696         29.1437         0.653041        -55.3191         0.653654        -55.3145         0.704176         31.4133  
2.7224                  0.705628         28.9309         0.651067        -55.5378         0.651678        -55.5334         0.706104         31.2143  
2.73729997              0.707545         28.7186         0.649097        -55.7557         0.649707        -55.7516         0.708017          31.016  
2.75219994              0.709447          28.507         0.647132        -55.9729         0.647741        -55.9691         0.709915         30.8183  
2.76710016              0.711333          28.296         0.645172        -56.1893         0.645779        -56.1858         0.711798         30.6212  
2.78200013              0.713205         28.0856         0.643216        -56.4051         0.643821        -56.4018         0.713667         30.4248  
2.7969001               0.715063         27.8758         0.641265        -56.6201         0.641868        -56.6171         0.715521          30.229  
2.81180006              0.716905         27.6667         0.639319        -56.8344         0.639919        -56.8316         0.717361         30.0339  
2.82670003              0.718734         27.4581         0.637377         -57.048         0.637975        -57.0455         0.719186         29.8394  
2.8416                  0.720548         27.2501          0.63544        -57.2609         0.636036        -57.2587         0.720997         29.6455  
2.85649997              0.722347         27.0427         0.633507        -57.4731         0.634101        -57.4711         0.722795         29.4522  
2.87140019              0.724133         26.8359          0.63158        -57.6846          0.63217        -57.6829         0.724578         29.2596  
2.88630016              0.725904         26.6298         0.629657        -57.8955         0.630245        -57.8939         0.726348         29.0676  
2.90120013              0.727662         26.4241         0.627739        -58.1056         0.628324        -58.1043         0.728104         28.8762  
2.9161001               0.729406         26.2191         0.625825        -58.3151         0.626408         -58.314         0.729846         28.6854  
2.93100006              0.731136         26.0147         0.623917        -58.5239         0.624496        -58.5231         0.731575         28.4953  
2.94590003              0.732853         25.8109         0.622014         -58.732          0.62259        -58.7314          0.73329         28.3057  
2.9608                  0.734556         25.6076         0.620115        -58.9394         0.620688        -58.9391         0.734993         28.1167  
2.97569997              0.736246         25.4049         0.618221        -59.1462         0.618791        -59.1461         0.736682         27.9284  
2.99060019              0.737923         25.2028         0.616332        -59.3524         0.616898        -59.3525         0.738358         27.7406  
3.00550016              0.739587         25.0012         0.614448        -59.5579         0.615011        -59.5582         0.740021         27.5534  
3.02040013              0.741237         24.8002         0.612569        -59.7627         0.613128        -59.7633         0.741671         27.3669  